LAMMPS (29 Aug 2024)
OMP_NUM_THREADS environment is not set. Defaulting to 1 thread. (src/comm.cpp:98)
  using 1 OpenMP thread(s) per MPI task
Loaded 1 plugins from C:\Users\angel\AppData\Local\LAMMPS 64-bit 29Aug2024 with GUI\plugins
# Lennard-Jones input file for MD benchmark

units lj
atom_style atomic

# Define the simulation box
lattice fcc 0.8442
Lattice spacing in x,y,z = 1.6795962 1.6795962 1.6795962
region box block 0 10 0 10 0 10
create_box 1 box
Created orthogonal box = (0 0 0) to (16.795962 16.795962 16.795962)
  1 by 1 by 1 MPI processor grid
create_atoms 1 box
Created 4000 atoms
  using lattice units in orthogonal box = (0 0 0) to (16.795962 16.795962 16.795962)
  create_atoms CPU = 0.001 seconds

# Define mass and initial velocity
mass 1 1.0
velocity all create 1.444 234985231

# Define pair style and coefficients
pair_style lj/cut 2.8
pair_coeff 1 1 1.0 1.0 2.5

# Neighbor settings
neighbor 0.3 bin
neigh_modify every 20 delay 0 check no

# Define the fix
fix 1 all nve
timestep 0.00462

# Thermo settings
thermo 100

# Output settings
dump 1 all atom 100 dump.lj
dump_modify 1 sort id

# Run the simulation
run 10000
Generated 0 of 0 mixed pair_coeff terms from geometric mixing rule
Neighbor list info ...
  update: every = 20 steps, delay = 0 steps, check = no
  max neighbors/atom: 2000, page size: 100000
  master list distance cutoff = 2.8
  ghost atom cutoff = 2.8
  binsize = 1.4, bins = 12 12 12
  1 neighbor lists, perpetual/occasional/extra = 1 0 0
  (1) pair lj/cut, perpetual
      attributes: half, newton on
      pair build: half/bin/atomonly/newton
      stencil: half/bin/3d
      bin: standard
Per MPI rank memory allocation (min/avg/max) = 3.222 | 3.222 | 3.222 Mbytes
   Step          Temp          E_pair         E_mol          TotEng         Press     
         0   1.444         -6.7733681      0             -4.6079096     -5.0165972    
       100   0.75550454    -5.74912        0             -4.6161465      0.24062885   
       200   0.76431725    -5.7630205      0             -4.6168312      0.21433571   
       300   0.75058502    -5.7427142      0             -4.6171182      0.30337066   
       400   0.75541098    -5.7501342      0             -4.617301       0.31311922   
       500   0.73902293    -5.7247423      0             -4.6164851      0.43230869   
       600   0.73858096    -5.7239487      0             -4.6163542      0.43825263   
       700   0.71704005    -5.6914704      0             -4.6161792      0.64032136   
       800   0.72656766    -5.7052848      0             -4.6157058      0.56610048   
       900   0.7063783     -5.6745698      0             -4.6152672      0.69857111   
      1000   0.70114286    -5.6660053      0             -4.6145539      0.74161622   
      1100   0.70377227    -5.6702627      0             -4.6148682      0.72957041   
      1200   0.69183887    -5.6517521      0             -4.6142532      0.80084811   
      1300   0.69772014    -5.6611708      0             -4.6148523      0.78490485   
      1400   0.69619412    -5.6586748      0             -4.6146447      0.81610794   
      1500   0.70780149    -5.675637       0             -4.6142002      0.74651595   
      1600   0.70434181    -5.6707845      0             -4.614536       0.75811464   
      1700   0.70285351    -5.6689053      0             -4.6148886      0.75255531   
      1800   0.70975854    -5.6793353      0             -4.6149637      0.67142901   
      1900   0.70390247    -5.6702522      0             -4.6146624      0.75332147   
      2000   0.69512194    -5.6559519      0             -4.6135297      0.80013592   
      2100   0.69685585    -5.6594331      0             -4.6144106      0.77561673   
      2200   0.70523473    -5.6723602      0             -4.6147726      0.72004154   
      2300   0.69174022    -5.6517362      0             -4.6143852      0.83321007   
      2400   0.69751026    -5.6602354      0             -4.6142315      0.8074374    
      2500   0.69391156    -5.6553452      0             -4.6147381      0.79603056   
      2600   0.69727051    -5.6604011      0             -4.6147568      0.77684582   
      2700   0.69879942    -5.662725       0             -4.6147879      0.7723835    
      2800   0.7015751     -5.6663723      0             -4.6142727      0.74675557   
      2900   0.70077685    -5.6656908      0             -4.6147883      0.72565829   
      3000   0.69481826    -5.656461       0             -4.6144942      0.79010197   
      3100   0.70451244    -5.6721612      0             -4.6156567      0.73943772   
      3200   0.69817093    -5.6621505      0             -4.6151559      0.80538365   
      3300   0.6851466     -5.6417458      0             -4.6142828      0.86271911   
      3400   0.70239312    -5.6679292      0             -4.6146029      0.75901025   
      3500   0.69968335    -5.6636048      0             -4.6143422      0.78505921   
      3600   0.70838997    -5.6762946      0             -4.6139753      0.73172219   
      3700   0.69648344    -5.6597446      0             -4.6152806      0.78547132   
      3800   0.70068375    -5.6653513      0             -4.6145885      0.74896818   
      3900   0.70466439    -5.6716577      0             -4.6149254      0.73066452   
      4000   0.71371943    -5.6850398      0             -4.6147283      0.67539407   
      4100   0.70640889    -5.6741493      0             -4.6148008      0.72545615   
      4200   0.70666271    -5.6749049      0             -4.6151759      0.72711838   
      4300   0.69272159    -5.6531011      0             -4.6142785      0.83443083   
      4400   0.7045852     -5.6712691      0             -4.6146555      0.74867946   
      4500   0.70278978    -5.6686698      0             -4.6147486      0.71229482   
      4600   0.69971408    -5.6638691      0             -4.6145603      0.72201534   
      4700   0.69374923    -5.6548035      0             -4.6144398      0.81124276   
      4800   0.69556861    -5.6575262      0             -4.6144342      0.78885314   
      4900   0.70382251    -5.67041        0             -4.6149401      0.731524     
      5000   0.70117022    -5.6664896      0             -4.6149972      0.75472466   
      5100   0.70192863    -5.6674262      0             -4.6147965      0.75546306   
      5200   0.70049443    -5.6651256      0             -4.6146467      0.75643771   
      5300   0.70000638    -5.6634569      0             -4.6137098      0.76585586   
      5400   0.68939505    -5.6482544      0             -4.6144203      0.85373463   
      5500   0.69982199    -5.6643773      0             -4.6149068      0.78011451   
      5600   0.70061781    -5.6650969      0             -4.6144329      0.75938352   
      5700   0.70717661    -5.6752082      0             -4.6147085      0.69181744   
      5800   0.69741383    -5.6604926      0             -4.6146334      0.7542543    
      5900   0.69902994    -5.6627235      0             -4.6144407      0.772575     
      6000   0.71220111    -5.6830081      0             -4.6149735      0.68173964   
      6100   0.70259898    -5.6686133      0             -4.6149783      0.73893968   
      6200   0.69407501    -5.6559035      0             -4.6150513      0.76249832   
      6300   0.69250879    -5.6532228      0             -4.6147193      0.80637929   
      6400   0.70940405    -5.6784279      0             -4.6145878      0.71642772   
      6500   0.6937225     -5.6548992      0             -4.6145756      0.81410928   
      6600   0.69649768    -5.6595061      0             -4.6150208      0.76362578   
      6700   0.69904036    -5.663385       0             -4.6150866      0.76317967   
      6800   0.70925738    -5.6789807      0             -4.6153606      0.67716839   
      6900   0.70565489    -5.6728922      0             -4.6146745      0.74121667   
      7000   0.69771096    -5.6613054      0             -4.6150006      0.76841501   
      7100   0.70048166    -5.665524       0             -4.6150642      0.72783798   
      7200   0.70035541    -5.6649942      0             -4.6147237      0.73870472   
      7300   0.69375199    -5.6544269      0             -4.6140591      0.79126864   
      7400   0.70865546    -5.6777021      0             -4.6149846      0.7345836    
      7500   0.6991436     -5.6631607      0             -4.6147075      0.78999569   
      7600   0.7015029     -5.6667186      0             -4.6147273      0.75994054   
      7700   0.69449145    -5.6559373      0             -4.6144606      0.84619134   
      7800   0.69098483    -5.6510897      0             -4.6148716      0.82276456   
      7900   0.6944597     -5.6563089      0             -4.6148798      0.78318461   
      8000   0.70297083    -5.6688828      0             -4.6146902      0.75413234   
      8100   0.70129238    -5.6669284      0             -4.6152528      0.73828801   
      8200   0.70342059    -5.670161       0             -4.6152939      0.71788002   
      8300   0.69270962    -5.6541122      0             -4.6153075      0.79789188   
      8400   0.70363561    -5.6699094      0             -4.6147198      0.75804073   
      8500   0.69404172    -5.6558167      0             -4.6150144      0.80983377   
      8600   0.70263953    -5.6685403      0             -4.6148445      0.76711234   
      8700   0.69041805    -5.6503215      0             -4.6149534      0.83397402   
      8800   0.6961595     -5.6593845      0             -4.6154063      0.76435065   
      8900   0.70400277    -5.671436       0             -4.6156958      0.73395693   
      9000   0.69243814    -5.6535564      0             -4.6151589      0.75891361   
      9100   0.70964858    -5.6793286      0             -4.6151219      0.68665719   
      9200   0.70056617    -5.6655021      0             -4.6149156      0.7627567    
      9300   0.70272883    -5.669077       0             -4.6152472      0.75009799   
      9400   0.70654665    -5.6749535      0             -4.6153985      0.70534294   
      9500   0.70556959    -5.673309       0             -4.6152192      0.72931923   
      9600   0.69934527    -5.6642592      0             -4.6155036      0.7589214    
      9700   0.68787574    -5.6463403      0             -4.6147847      0.82498566   
      9800   0.70127755    -5.6663852      0             -4.6147318      0.75226993   
      9900   0.70668865    -5.6750596      0             -4.6152916      0.72091019   
     10000   0.70031747    -5.6659413      0             -4.6157278      0.76842363   
Loop time of 19.6405 on 1 procs for 10000 steps with 4000 atoms

Performance: 203237.147 tau/day, 509.152 timesteps/s, 2.037 Matom-step/s
88.5% CPU use with 1 MPI tasks x 1 OpenMP threads

MPI task timing breakdown:
Section |  min time  |  avg time  |  max time  |%varavg| %total
---------------------------------------------------------------
Pair    | 16.008     | 16.008     | 16.008     |   0.0 | 81.51
Neigh   | 2.6019     | 2.6019     | 2.6019     |   0.0 | 13.25
Comm    | 0.23766    | 0.23766    | 0.23766    |   0.0 |  1.21
Output  | 0.49519    | 0.49519    | 0.49519    |   0.0 |  2.52
Modify  | 0.24147    | 0.24147    | 0.24147    |   0.0 |  1.23
Other   |            | 0.05607    |            |       |  0.29

Nlocal:           4000 ave        4000 max        4000 min
Histogram: 1 0 0 0 0 0 0 0 0 0
Nghost:           5505 ave        5505 max        5505 min
Histogram: 1 0 0 0 0 0 0 0 0 0
Neighs:         150022 ave      150022 max      150022 min
Histogram: 1 0 0 0 0 0 0 0 0 0

Total # of neighbors = 150022
Ave neighs/atom = 37.5055
Neighbor list builds = 500
Dangerous builds not checked
Total wall time: 0:00:19
